# Residuals   
# Time        	p             	Ux            	Uy            
0             	N/A	N/A
1             	1.000000e+00	1.000000e+00	1.000000e+00
2             	1.186743e-01	4.373104e-01	5.725257e-01
3             	1.777045e-01	1.691498e-01	1.574083e-01
4             	3.031498e-01	4.898313e-02	5.733305e-02
5             	1.737910e-01	1.257714e-01	1.507897e-01
6             	2.351351e-01	1.420920e-01	1.674032e-01
7             	3.930186e-01	9.902939e-02	1.227019e-01
8             	2.486324e-01	1.140680e-01	1.192795e-01
9             	3.292968e-01	7.655882e-02	7.893004e-02
10            	3.432718e-01	5.414785e-02	6.804431e-02
11            	2.665558e-01	6.242184e-02	7.445104e-02
12            	3.296111e-01	6.414434e-02	6.615029e-02
13            	4.658172e-01	5.841330e-02	6.845530e-02
14            	3.439427e-01	5.702199e-02	6.300754e-02
15            	4.153268e-01	4.928548e-02	5.357223e-02
16            	3.604275e-01	4.340317e-02	5.247199e-02
17            	2.689512e-01	4.546048e-02	5.272135e-02
18            	2.822462e-01	4.388065e-02	4.680526e-02
19            	5.282522e-01	4.161151e-02	4.758391e-02
20            	3.997825e-01	3.997607e-02	4.780315e-02
21            	3.709438e-01	3.802425e-02	4.304894e-02
22            	4.337272e-01	3.322586e-02	3.861274e-02
23            	2.672003e-01	3.273842e-02	3.915282e-02
24            	2.401693e-01	3.424287e-02	3.839165e-02
25            	2.968169e-01	3.236769e-02	3.536067e-02
26            	4.538584e-01	3.041297e-02	3.448839e-02
27            	3.648689e-01	2.955497e-02	3.365960e-02
28            	4.003913e-01	2.798916e-02	2.946355e-02
29            	3.092286e-01	2.526245e-02	2.623757e-02
30            	2.177405e-01	2.661401e-02	2.717503e-02
31            	2.025447e-01	2.736911e-02	2.606263e-02
32            	2.362859e-01	2.506745e-02	2.320979e-02
33            	2.921109e-01	2.296681e-02	2.116164e-02
34            	3.195827e-01	2.332039e-02	2.053871e-02
35            	2.798472e-01	2.252085e-02	1.868748e-02
36            	2.100688e-01	2.128599e-02	1.742047e-02
37            	1.702486e-01	2.126616e-02	1.760325e-02
38            	1.600728e-01	2.091893e-02	1.642182e-02
39            	1.663764e-01	1.966341e-02	1.465491e-02
40            	1.793686e-01	1.893343e-02	1.353709e-02
41            	1.722485e-01	1.902249e-02	1.367168e-02
42            	1.487508e-01	1.870784e-02	1.391269e-02
43            	1.261019e-01	1.830602e-02	1.406555e-02
44            	1.159072e-01	1.792688e-02	1.356291e-02
45            	1.132696e-01	1.716115e-02	1.270014e-02
46            	1.099809e-01	1.644248e-02	1.181078e-02
47            	1.054526e-01	1.621298e-02	1.143951e-02
48            	9.763286e-02	1.607939e-02	1.136972e-02
49            	8.772258e-02	1.604715e-02	1.166647e-02
50            	7.867203e-02	1.586760e-02	1.188098e-02
51            	7.198121e-02	1.529180e-02	1.187113e-02
52            	6.868565e-02	1.472668e-02	1.142944e-02
53            	6.647697e-02	1.460187e-02	1.070956e-02
54            	6.548925e-02	1.455617e-02	1.000485e-02
55            	5.939217e-02	1.427973e-02	9.792121e-03
56            	5.125719e-02	1.400338e-02	9.883869e-03
57            	4.675544e-02	1.368066e-02	9.893741e-03
58            	4.567567e-02	1.338668e-02	9.612917e-03
59            	4.532257e-02	1.306354e-02	9.118359e-03
60            	4.349994e-02	1.274315e-02	8.671697e-03
61            	4.051802e-02	1.236652e-02	8.354665e-03
62            	3.723599e-02	1.196753e-02	8.198630e-03
63            	3.399544e-02	1.159699e-02	8.086411e-03
64            	3.268271e-02	1.119047e-02	7.909698e-03
65            	3.106221e-02	1.071980e-02	7.623551e-03
66            	3.008804e-02	1.025365e-02	7.305628e-03
67            	2.878762e-02	9.838035e-03	7.033994e-03
68            	2.654315e-02	9.436049e-03	6.744918e-03
69            	2.485525e-02	9.071276e-03	6.430982e-03
70            	2.367173e-02	8.721835e-03	6.087651e-03
71            	2.239516e-02	8.383870e-03	5.718785e-03
72            	2.116309e-02	8.034715e-03	5.330930e-03
73            	1.981916e-02	7.694120e-03	4.926522e-03
74            	1.860039e-02	7.352075e-03	4.521063e-03
75            	1.771216e-02	7.007528e-03	4.107443e-03
76            	1.687532e-02	6.673130e-03	3.729018e-03
77            	1.590100e-02	6.334295e-03	3.352149e-03
78            	1.471250e-02	5.991267e-03	3.027686e-03
79            	1.351451e-02	5.658037e-03	2.750815e-03
80            	1.249933e-02	5.337627e-03	2.522160e-03
81            	1.168944e-02	5.017796e-03	2.325910e-03
82            	1.084157e-02	4.725819e-03	2.148332e-03
83            	1.005429e-02	4.475268e-03	1.989407e-03
84            	9.083231e-03	4.204362e-03	1.843125e-03
85            	8.280945e-03	3.969260e-03	1.702015e-03
86            	7.498339e-03	3.749063e-03	1.600323e-03
87            	6.827415e-03	3.553488e-03	1.519697e-03
88            	6.372020e-03	3.380072e-03	1.448013e-03
89            	5.950505e-03	3.227689e-03	1.369261e-03
90            	5.516532e-03	3.093576e-03	1.293577e-03
91            	5.074785e-03	2.967305e-03	1.216657e-03
92            	4.652956e-03	2.843014e-03	1.139722e-03
93            	4.348788e-03	2.718387e-03	1.067539e-03
94            	4.161647e-03	2.592610e-03	1.003911e-03
95            	4.024147e-03	2.478446e-03	9.443335e-04
96            	3.876828e-03	2.381544e-03	8.948593e-04
97            	3.643332e-03	2.289709e-03	8.547092e-04
98            	3.367378e-03	2.196963e-03	8.216178e-04
99            	3.112131e-03	2.099869e-03	7.872857e-04
100           	2.943727e-03	2.005267e-03	7.575219e-04
101           	2.820064e-03	1.916415e-03	7.325418e-04
102           	2.687171e-03	1.831941e-03	7.059375e-04
103           	2.542782e-03	1.751345e-03	6.789172e-04
104           	2.439523e-03	1.677582e-03	6.539720e-04
105           	2.313215e-03	1.603485e-03	6.310398e-04
106           	2.212133e-03	1.536022e-03	6.094403e-04
107           	2.141123e-03	1.476066e-03	5.910792e-04
108           	2.065456e-03	1.423456e-03	5.743648e-04
109           	1.985522e-03	1.375028e-03	5.592432e-04
110           	1.906157e-03	1.326865e-03	5.457422e-04
111           	1.789530e-03	1.280702e-03	5.351581e-04
112           	1.683347e-03	1.240873e-03	5.277943e-04
113           	1.582611e-03	1.203200e-03	5.208711e-04
114           	1.525602e-03	1.167138e-03	5.146399e-04
115           	1.460291e-03	1.133565e-03	5.051761e-04
116           	1.395308e-03	1.102422e-03	5.009164e-04
117           	1.347569e-03	1.072855e-03	4.979994e-04
118           	1.308914e-03	1.044864e-03	4.945525e-04
119           	1.271197e-03	1.018506e-03	4.900606e-04
120           	1.231754e-03	9.944738e-04	4.848864e-04
121           	1.191970e-03	9.711262e-04	4.797432e-04
122           	1.155031e-03	9.482806e-04	4.747778e-04
123           	1.122169e-03	9.259561e-04	4.694546e-04
124           	1.091195e-03	9.042339e-04	4.643523e-04
125           	1.065674e-03	8.832307e-04	4.591487e-04
126           	1.043511e-03	8.629564e-04	4.534794e-04
127           	1.021528e-03	8.433602e-04	4.473142e-04
128           	9.991273e-04	8.243859e-04	4.406631e-04
129           	9.778570e-04	8.059619e-04	4.335403e-04
130           	9.582204e-04	7.881214e-04	4.259614e-04
131           	9.386652e-04	7.708347e-04	4.179819e-04
132           	9.191028e-04	7.540721e-04	4.096742e-04
133           	8.982256e-04	7.378344e-04	4.011220e-04
134           	8.747081e-04	7.220157e-04	3.912946e-04
135           	8.536547e-04	7.066697e-04	3.835068e-04
136           	8.378593e-04	6.916440e-04	3.753661e-04
137           	8.186557e-04	6.768247e-04	3.652543e-04
138           	7.996319e-04	6.623274e-04	3.555846e-04
139           	7.785838e-04	6.481384e-04	3.476156e-04
140           	7.622637e-04	6.342457e-04	3.380097e-04
141           	7.446031e-04	6.205150e-04	3.284321e-04
142           	7.277163e-04	6.069047e-04	3.192118e-04
143           	7.113478e-04	5.933977e-04	3.102566e-04
144           	6.955487e-04	5.800128e-04	3.013866e-04
145           	6.795319e-04	5.667687e-04	2.925162e-04
146           	6.627486e-04	5.536823e-04	2.836775e-04
147           	6.453866e-04	5.407513e-04	2.749580e-04
148           	6.286236e-04	5.279595e-04	2.664225e-04
149           	6.117142e-04	5.153063e-04	2.581020e-04
150           	5.949889e-04	5.027836e-04	2.499924e-04
151           	5.786077e-04	4.904076e-04	2.420869e-04
152           	5.623571e-04	4.782096e-04	2.343895e-04
153           	5.465596e-04	4.662112e-04	2.269152e-04
154           	5.308526e-04	4.544302e-04	2.196783e-04
155           	5.154883e-04	4.428806e-04	2.126782e-04
156           	5.004141e-04	4.315727e-04	2.059076e-04
157           	4.856381e-04	4.205025e-04	1.993599e-04
158           	4.711201e-04	4.096679e-04	1.930336e-04
159           	4.571403e-04	3.990694e-04	1.869309e-04
160           	4.437317e-04	3.887104e-04	1.810495e-04
161           	4.306076e-04	3.785981e-04	1.753872e-04
162           	4.177652e-04	3.687312e-04	1.699302e-04
163           	4.051627e-04	3.591099e-04	1.646637e-04
164           	3.929290e-04	3.497337e-04	1.595794e-04
165           	3.810909e-04	3.405990e-04	1.546737e-04
166           	3.696275e-04	3.316990e-04	1.499462e-04
167           	3.585091e-04	3.230260e-04	1.453939e-04
168           	3.479102e-04	3.145735e-04	1.410104e-04
169           	3.377884e-04	3.063275e-04	1.367858e-04
170           	3.280896e-04	2.982811e-04	1.327100e-04
171           	3.186671e-04	2.904288e-04	1.287751e-04
172           	3.093167e-04	2.827676e-04	1.249777e-04
173           	2.988277e-04	2.751676e-04	1.217011e-04
174           	2.902096e-04	2.680334e-04	1.178338e-04
175           	2.813494e-04	2.609860e-04	1.142051e-04
176           	2.733493e-04	2.540468e-04	1.109681e-04
177           	2.639915e-04	2.471463e-04	1.083535e-04
178           	2.573934e-04	2.406696e-04	1.051588e-04
179           	2.501662e-04	2.342820e-04	1.020573e-04
180           	2.423899e-04	2.278967e-04	9.953006e-05
181           	2.356906e-04	2.218956e-04	9.663217e-05
182           	2.292678e-04	2.159804e-04	9.394366e-05
183           	2.218238e-04	2.100837e-04	9.181074e-05
184           	2.161849e-04	2.045526e-04	8.925365e-05
185           	2.106689e-04	1.991060e-04	8.681632e-05
186           	2.041231e-04	1.936789e-04	8.486402e-05
187           	1.989969e-04	1.885886e-04	8.254269e-05
188           	1.936596e-04	1.834917e-04	8.061794e-05
189           	1.881900e-04	1.786943e-04	7.839852e-05
190           	1.829953e-04	1.738770e-04	7.661738e-05
191           	1.780789e-04	1.693404e-04	7.458098e-05
192           	1.732710e-04	1.647904e-04	7.294206e-05
193           	1.687839e-04	1.605077e-04	7.101716e-05
194           	1.644385e-04	1.562139e-04	6.944990e-05
195           	1.601148e-04	1.521734e-04	6.761786e-05
196           	1.560391e-04	1.481207e-04	6.613715e-05
197           	1.528459e-04	1.442420e-04	6.461979e-05
198           	1.479351e-04	1.405657e-04	6.283940e-05
199           	1.439906e-04	1.368520e-04	6.143634e-05
200           	1.408707e-04	1.332863e-04	6.006837e-05
201           	1.367410e-04	1.299024e-04	5.846271e-05
202           	1.333251e-04	1.264848e-04	5.717871e-05
203           	1.306362e-04	1.232074e-04	5.589632e-05
204           	1.267017e-04	1.200997e-04	5.437901e-05
205           	1.234333e-04	1.169597e-04	5.316271e-05
206           	1.208166e-04	1.139470e-04	5.196300e-05
207           	1.172302e-04	1.110870e-04	5.055527e-05
208           	1.142853e-04	1.081959e-04	4.942339e-05
209           	1.120179e-04	1.054198e-04	4.830066e-05
210           	1.087089e-04	1.027832e-04	4.698056e-05
211           	1.060181e-04	1.001166e-04	4.591362e-05
212           	1.038822e-04	9.755577e-05	4.485620e-05
213           	1.008916e-04	9.512365e-05	4.361779e-05
214           	9.837608e-05	9.266260e-05	4.261368e-05
215           	9.639255e-05	9.029823e-05	4.161973e-05
216           	9.358787e-05	8.805116e-05	4.046077e-05
217           	9.121667e-05	8.577717e-05	3.951828e-05
218           	8.937303e-05	8.359163e-05	3.858596e-05
219           	8.674702e-05	8.151378e-05	3.750126e-05
220           	8.453384e-05	7.940977e-05	3.661590e-05
221           	8.247371e-05	7.742263e-05	3.563003e-05
222           	8.046273e-05	7.542198e-05	3.481507e-05
223           	7.856458e-05	7.353670e-05	3.386322e-05
224           	7.669148e-05	7.164001e-05	3.305673e-05
225           	7.478826e-05	6.985066e-05	3.213223e-05
226           	7.287434e-05	6.804828e-05	3.136218e-05
227           	7.103594e-05	6.634648e-05	3.049023e-05
228           	6.919001e-05	6.463196e-05	2.976383e-05
229           	6.746059e-05	6.301310e-05	2.893223e-05
230           	6.572473e-05	6.138187e-05	2.823374e-05
231           	6.405947e-05	5.984148e-05	2.743669e-05
232           	6.240656e-05	5.829010e-05	2.676981e-05
233           	6.082726e-05	5.682538e-05	2.601323e-05
234           	5.925013e-05	5.535081e-05	2.538100e-05
235           	5.774786e-05	5.395803e-05	2.466269e-05
236           	5.623537e-05	5.255555e-05	2.406055e-05
237           	5.479427e-05	5.123065e-05	2.337647e-05
238           	5.334928e-05	4.989641e-05	2.280361e-05
239           	5.197433e-05	4.863616e-05	2.215418e-05
240           	5.061074e-05	4.736737e-05	2.161132e-05
241           	4.931012e-05	4.616932e-05	2.099568e-05
242           	4.801105e-05	4.496393e-05	2.048064e-05
243           	4.678069e-05	4.382560e-05	1.989668e-05
244           	4.553112e-05	4.268034e-05	1.940831e-05
245           	4.436126e-05	4.159866e-05	1.885509e-05
246           	4.318724e-05	4.051020e-05	1.839305e-05
247           	4.206293e-05	3.948215e-05	1.786962e-05
248           	4.095814e-05	3.844772e-05	1.743251e-05
249           	3.988933e-05	3.747098e-05	1.693664e-05
250           	3.883245e-05	3.648845e-05	1.652246e-05
251           	3.783091e-05	3.556082e-05	1.605267e-05
252           	3.682529e-05	3.462779e-05	1.566085e-05
253           	3.588313e-05	3.374690e-05	1.521671e-05
254           	3.493131e-05	3.286079e-05	1.484675e-05
255           	3.402487e-05	3.202418e-05	1.442694e-05
256           	3.312491e-05	3.118268e-05	1.407701e-05
257           	3.226279e-05	3.038823e-05	1.367945e-05
258           	3.140978e-05	2.958908e-05	1.334822e-05
259           	3.059283e-05	2.883472e-05	1.297187e-05
260           	2.978924e-05	2.807610e-05	1.265868e-05
261           	2.901490e-05	2.736007e-05	1.230275e-05
262           	2.824845e-05	2.664011e-05	1.200671e-05
263           	2.752166e-05	2.596065e-05	1.166993e-05
264           	2.679943e-05	2.527742e-05	1.138983e-05
265           	2.611180e-05	2.463259e-05	1.107102e-05
266           	2.542766e-05	2.398405e-05	1.080605e-05
267           	2.476934e-05	2.337205e-05	1.050423e-05
268           	2.412207e-05	2.275669e-05	1.025340e-05
269           	2.349933e-05	2.217614e-05	9.967501e-06
270           	2.288303e-05	2.159252e-05	9.730020e-06
271           	2.229366e-05	2.104183e-05	9.459285e-06
272           	2.170560e-05	2.048821e-05	9.234452e-06
273           	2.114854e-05	1.996590e-05	8.977922e-06
274           	2.059619e-05	1.944080e-05	8.764878e-06
275           	2.006881e-05	1.894542e-05	8.521738e-06
276           	1.954792e-05	1.844732e-05	8.319902e-06
277           	1.904478e-05	1.797741e-05	8.089395e-06
278           	1.855054e-05	1.750498e-05	7.897954e-06
279           	1.807708e-05	1.705930e-05	7.679222e-06
280           	1.760413e-05	1.661119e-05	7.497618e-06
281           	1.715344e-05	1.618842e-05	7.290124e-06
282           	1.670486e-05	1.576339e-05	7.117786e-06
283           	1.627910e-05	1.536237e-05	6.920857e-06
284           	1.585519e-05	1.495917e-05	6.757273e-06
285           	1.544866e-05	1.457871e-05	6.570335e-06
286           	1.504850e-05	1.419620e-05	6.414947e-06
287           	1.466325e-05	1.383524e-05	6.237358e-06
288           	1.428404e-05	1.347233e-05	6.089692e-06
289           	1.392087e-05	1.312984e-05	5.920969e-06
290           	1.355908e-05	1.278548e-05	5.780659e-06
291           	1.321276e-05	1.246049e-05	5.620364e-06
292           	1.286914e-05	1.213375e-05	5.486973e-06
293           	1.254116e-05	1.182536e-05	5.334632e-06
294           	1.221716e-05	1.151527e-05	5.207820e-06
295           	1.190510e-05	1.122256e-05	5.063067e-06
296           	1.159557e-05	1.092828e-05	4.942517e-06
297           	1.129931e-05	1.065049e-05	4.804915e-06
298           	1.100560e-05	1.037120e-05	4.690258e-06
299           	1.072628e-05	1.010752e-05	4.559463e-06
300           	1.044656e-05	9.842405e-06	4.450468e-06
301           	1.017933e-05	9.592112e-06	4.326183e-06
302           	9.913438e-06	9.340472e-06	4.222546e-06
303           	9.660202e-06	9.102874e-06	4.104420e-06
304           	9.443895e-06	8.867951e-06	3.994088e-06
305           	9.237357e-06	8.637661e-06	3.892484e-06
306           	9.032532e-06	8.413198e-06	3.795126e-06
307           	8.830941e-06	8.194908e-06	3.698045e-06
308           	8.624434e-06	7.982674e-06	3.600484e-06
309           	8.412273e-06	7.776193e-06	3.504232e-06
310           	8.197796e-06	7.575062e-06	3.411031e-06
311           	7.986517e-06	7.379002e-06	3.321599e-06
312           	7.780186e-06	7.187922e-06	3.235375e-06
313           	7.581535e-06	7.001690e-06	3.151334e-06
314           	7.389693e-06	6.820132e-06	3.068798e-06
315           	7.202277e-06	6.643191e-06	2.987972e-06
316           	7.018950e-06	6.470767e-06	2.909193e-06
