# Residuals   
# Time        	p             	Ux            	Uy            
0             	N/A	N/A
1             	1.000000e+00	1.000000e+00	1.000000e+00
2             	4.045081e-01	3.053408e-01	4.632217e-01
3             	4.559767e-01	1.588268e-01	1.461966e-01
4             	7.521932e-01	5.164221e-02	5.841477e-02
5             	4.634870e-01	7.672556e-02	1.417680e-01
6             	4.712319e-01	8.565452e-02	2.189131e-01
7             	8.661014e-01	5.143487e-02	1.414056e-01
8             	6.124920e-01	6.657173e-02	1.458613e-01
9             	5.793195e-01	6.333232e-02	1.033592e-01
10            	7.089701e-01	4.269252e-02	6.401592e-02
11            	6.259542e-01	3.037588e-02	5.455042e-02
12            	4.428004e-01	3.672590e-02	7.373718e-02
13            	4.776021e-01	3.313881e-02	5.989947e-02
14            	8.224384e-01	2.710940e-02	4.366060e-02
15            	7.364888e-01	2.869494e-02	4.721679e-02
16            	5.495844e-01	2.563487e-02	4.327708e-02
17            	6.608963e-01	2.072629e-02	3.674329e-02
18            	6.088740e-01	2.116784e-02	3.840941e-02
19            	5.048546e-01	2.275787e-02	3.348658e-02
20            	3.783823e-01	2.241803e-02	2.899606e-02
21            	6.136542e-01	2.040066e-02	3.025989e-02
22            	6.665499e-01	1.934168e-02	3.070654e-02
23            	5.882231e-01	1.814756e-02	3.008132e-02
24            	4.332912e-01	1.721194e-02	2.820875e-02
25            	3.614912e-01	1.824637e-02	2.786510e-02
26            	3.302388e-01	1.924535e-02	2.802364e-02
27            	3.540513e-01	1.786055e-02	2.579382e-02
28            	4.332297e-01	1.611322e-02	2.638586e-02
29            	4.852593e-01	1.603953e-02	2.781286e-02
30            	4.687337e-01	1.591224e-02	2.752803e-02
31            	3.602454e-01	1.525048e-02	2.555652e-02
32            	2.759999e-01	1.553041e-02	2.606374e-02
33            	2.558266e-01	1.600585e-02	2.649302e-02
34            	2.684326e-01	1.526947e-02	2.555519e-02
35            	3.050561e-01	1.419833e-02	2.440352e-02
36            	3.431289e-01	1.408159e-02	2.504805e-02
37            	3.468020e-01	1.404541e-02	2.543975e-02
38            	3.078418e-01	1.375923e-02	2.452895e-02
39            	2.478005e-01	1.357330e-02	2.394562e-02
40            	2.178027e-01	1.393831e-02	2.438081e-02
41            	2.084107e-01	1.386007e-02	2.410586e-02
42            	2.140398e-01	1.332315e-02	2.354933e-02
43            	2.267385e-01	1.266249e-02	2.282628e-02
44            	2.399133e-01	1.251120e-02	2.264871e-02
45            	2.374322e-01	1.254252e-02	2.241657e-02
46            	2.188426e-01	1.242628e-02	2.202368e-02
47            	1.939444e-01	1.244055e-02	2.246455e-02
48            	1.735806e-01	1.267864e-02	2.318436e-02
49            	1.683579e-01	1.282636e-02	2.350949e-02
50            	1.752533e-01	1.278057e-02	2.344283e-02
51            	1.798709e-01	1.273072e-02	2.307024e-02
52            	1.795355e-01	1.267218e-02	2.287354e-02
53            	1.804747e-01	1.281791e-02	2.289648e-02
54            	1.741502e-01	1.315491e-02	2.336268e-02
55            	1.610701e-01	1.372738e-02	2.419884e-02
56            	1.483864e-01	1.441522e-02	2.507763e-02
57            	1.437636e-01	1.507529e-02	2.563676e-02
58            	1.427319e-01	1.563142e-02	2.592224e-02
59            	1.427594e-01	1.606375e-02	2.601945e-02
60            	1.458359e-01	1.650528e-02	2.640513e-02
61            	1.526453e-01	1.705215e-02	2.717501e-02
62            	1.565954e-01	1.780331e-02	2.824188e-02
63            	1.532957e-01	1.861266e-02	2.935379e-02
64            	1.472729e-01	1.932234e-02	3.018935e-02
65            	1.400849e-01	1.994257e-02	3.079496e-02
66            	1.366672e-01	2.044909e-02	3.127276e-02
67            	1.367883e-01	2.091937e-02	3.178556e-02
68            	1.367701e-01	2.141666e-02	3.256227e-02
69            	1.373918e-01	2.197815e-02	3.346699e-02
70            	1.375528e-01	2.265612e-02	3.436812e-02
71            	1.357836e-01	2.334551e-02	3.517807e-02
72            	1.333260e-01	2.401308e-02	3.594017e-02
73            	1.308759e-01	2.464430e-02	3.674078e-02
74            	1.287636e-01	2.526890e-02	3.767386e-02
75            	1.289455e-01	2.581514e-02	3.876505e-02
76            	1.294727e-01	2.634760e-02	4.004134e-02
77            	1.299614e-01	2.691466e-02	4.129532e-02
78            	1.267475e-01	2.739380e-02	4.234396e-02
79            	1.219227e-01	2.771468e-02	4.321825e-02
80            	1.169491e-01	2.808605e-02	4.408319e-02
81            	1.132711e-01	2.835277e-02	4.468924e-02
82            	1.112641e-01	2.858842e-02	4.542849e-02
83            	1.123417e-01	2.887739e-02	4.607982e-02
84            	1.123517e-01	2.900798e-02	4.665043e-02
85            	1.146099e-01	2.926142e-02	4.716481e-02
86            	1.171653e-01	2.930910e-02	4.734871e-02
87            	1.175441e-01	2.937823e-02	4.723366e-02
88            	1.211747e-01	2.939227e-02	4.709994e-02
89            	1.257869e-01	2.932805e-02	4.644972e-02
90            	1.275834e-01	2.919931e-02	4.590860e-02
91            	1.293981e-01	2.898988e-02	4.493863e-02
92            	1.356113e-01	2.869812e-02	4.387992e-02
93            	1.407006e-01	2.836424e-02	4.279061e-02
94            	1.389780e-01	2.795486e-02	4.146328e-02
95            	1.381399e-01	2.752723e-02	4.038760e-02
96            	1.421451e-01	2.698641e-02	3.895142e-02
97            	1.441918e-01	2.638875e-02	3.753343e-02
98            	1.401535e-01	2.572953e-02	3.635894e-02
99            	1.361448e-01	2.499603e-02	3.534159e-02
100           	1.351828e-01	2.428943e-02	3.453196e-02
101           	1.369363e-01	2.346868e-02	3.360049e-02
102           	1.324545e-01	2.259155e-02	3.283413e-02
103           	1.267261e-01	2.169752e-02	3.233771e-02
104           	1.254228e-01	2.086628e-02	3.203895e-02
105           	1.278873e-01	2.005809e-02	3.187091e-02
106           	1.326737e-01	1.928326e-02	3.172852e-02
107           	1.350176e-01	1.855125e-02	3.164186e-02
108           	1.366194e-01	1.800432e-02	3.171113e-02
109           	1.365864e-01	1.746284e-02	3.151309e-02
110           	1.361827e-01	1.703316e-02	3.126001e-02
111           	1.369589e-01	1.674538e-02	3.109501e-02
112           	1.379648e-01	1.655114e-02	3.102472e-02
113           	1.368546e-01	1.644363e-02	3.103739e-02
114           	1.324533e-01	1.636222e-02	3.108486e-02
115           	1.258750e-01	1.629273e-02	3.112714e-02
116           	1.212748e-01	1.620488e-02	3.116305e-02
117           	1.188262e-01	1.612683e-02	3.127572e-02
118           	1.162465e-01	1.607591e-02	3.138960e-02
119           	1.150757e-01	1.604316e-02	3.148853e-02
120           	1.127232e-01	1.604074e-02	3.156054e-02
121           	1.093300e-01	1.606778e-02	3.148544e-02
122           	1.056223e-01	1.610533e-02	3.141880e-02
123           	1.011097e-01	1.613733e-02	3.120351e-02
124           	9.923336e-02	1.614726e-02	3.088341e-02
125           	9.847039e-02	1.615522e-02	3.063439e-02
126           	9.942642e-02	1.619129e-02	3.031956e-02
127           	9.990636e-02	1.623943e-02	2.996585e-02
128           	1.000021e-01	1.628636e-02	2.973447e-02
129           	9.921592e-02	1.629908e-02	2.934363e-02
130           	9.843399e-02	1.630953e-02	2.902174e-02
131           	9.881832e-02	1.631194e-02	2.874894e-02
132           	9.862029e-02	1.630411e-02	2.846515e-02
133           	9.821990e-02	1.631000e-02	2.832363e-02
134           	9.747670e-02	1.630223e-02	2.825869e-02
135           	9.648612e-02	1.630055e-02	2.822536e-02
136           	9.498146e-02	1.630206e-02	2.828492e-02
137           	9.359544e-02	1.631496e-02	2.841665e-02
138           	9.258939e-02	1.635143e-02	2.861076e-02
139           	9.222165e-02	1.639365e-02	2.885115e-02
140           	9.234813e-02	1.644741e-02	2.916582e-02
141           	9.328647e-02	1.650899e-02	2.950302e-02
142           	9.531223e-02	1.657533e-02	2.980341e-02
143           	9.750509e-02	1.664034e-02	3.005861e-02
144           	9.976207e-02	1.672366e-02	3.030363e-02
145           	1.022894e-01	1.680371e-02	3.055671e-02
146           	1.057119e-01	1.692304e-02	3.078899e-02
147           	1.099720e-01	1.706639e-02	3.099125e-02
148           	1.142254e-01	1.724486e-02	3.118153e-02
149           	1.171096e-01	1.742556e-02	3.138301e-02
150           	1.198545e-01	1.761642e-02	3.152744e-02
151           	1.228186e-01	1.785313e-02	3.165681e-02
152           	1.272083e-01	1.814340e-02	3.178722e-02
153           	1.342430e-01	1.847879e-02	3.195771e-02
154           	1.445894e-01	1.891129e-02	3.221585e-02
155           	1.529418e-01	1.947977e-02	3.240831e-02
156           	1.541256e-01	2.005474e-02	3.249724e-02
157           	1.616432e-01	2.058592e-02	3.254610e-02
158           	1.710336e-01	2.120673e-02	3.265209e-02
159           	1.846402e-01	2.207959e-02	3.292302e-02
160           	1.988610e-01	2.298127e-02	3.316591e-02
161           	1.872459e-01	2.353916e-02	3.280334e-02
162           	2.250177e-01	2.413802e-02	3.255681e-02
163           	2.109559e-01	2.532684e-02	3.280714e-02
164           	1.911523e-01	2.595932e-02	3.249831e-02
165           	1.937114e-01	2.637979e-02	3.206634e-02
166           	1.825945e-01	2.702434e-02	3.183941e-02
167           	1.950927e-01	2.748801e-02	3.154213e-02
168           	1.870569e-01	2.811548e-02	3.160804e-02
169           	1.852898e-01	2.861233e-02	3.143973e-02
170           	1.875635e-01	2.896936e-02	3.120542e-02
171           	1.852855e-01	2.931910e-02	3.092830e-02
172           	1.841428e-01	2.951318e-02	3.075952e-02
173           	1.780379e-01	2.965543e-02	3.077955e-02
174           	1.753383e-01	2.969449e-02	3.077555e-02
175           	1.730069e-01	2.971156e-02	3.080053e-02
176           	1.725597e-01	2.966447e-02	3.082335e-02
177           	1.691881e-01	2.951069e-02	3.087213e-02
178           	1.667157e-01	2.927036e-02	3.102717e-02
179           	1.635445e-01	2.892647e-02	3.126324e-02
180           	1.630418e-01	2.858644e-02	3.150049e-02
181           	1.622964e-01	2.829785e-02	3.180819e-02
182           	1.592466e-01	2.808516e-02	3.213092e-02
183           	1.542808e-01	2.785244e-02	3.251231e-02
184           	1.527347e-01	2.764927e-02	3.300164e-02
185           	1.542807e-01	2.734044e-02	3.344502e-02
186           	1.530818e-01	2.689834e-02	3.373418e-02
187           	1.540449e-01	2.644756e-02	3.406252e-02
188           	1.544170e-01	2.609016e-02	3.446337e-02
189           	1.545222e-01	2.577838e-02	3.485105e-02
190           	1.547767e-01	2.543647e-02	3.517069e-02
191           	1.555587e-01	2.504421e-02	3.541059e-02
192           	1.555218e-01	2.461370e-02	3.560672e-02
193           	1.557347e-01	2.418043e-02	3.583729e-02
194           	1.548813e-01	2.373649e-02	3.601962e-02
195           	1.535800e-01	2.330173e-02	3.618998e-02
196           	1.511284e-01	2.286850e-02	3.625335e-02
197           	1.471458e-01	2.242803e-02	3.621486e-02
198           	1.410878e-01	2.197278e-02	3.602924e-02
199           	1.350696e-01	2.150214e-02	3.581851e-02
200           	1.319180e-01	2.105496e-02	3.552272e-02
201           	1.290338e-01	2.065801e-02	3.514525e-02
202           	1.259043e-01	2.027790e-02	3.464711e-02
203           	1.201768e-01	1.992657e-02	3.392900e-02
204           	1.141253e-01	1.962475e-02	3.335954e-02
205           	1.085035e-01	1.936619e-02	3.278073e-02
206           	1.042676e-01	1.914742e-02	3.214889e-02
207           	9.971554e-02	1.895076e-02	3.151234e-02
208           	9.534130e-02	1.877439e-02	3.092650e-02
209           	9.113376e-02	1.864300e-02	3.053724e-02
210           	8.835568e-02	1.850340e-02	3.007044e-02
211           	8.670238e-02	1.835241e-02	2.961507e-02
212           	8.376647e-02	1.819006e-02	2.924074e-02
213           	8.118018e-02	1.805275e-02	2.892873e-02
214           	7.978919e-02	1.791518e-02	2.867976e-02
215           	7.793605e-02	1.775808e-02	2.849880e-02
216           	7.479389e-02	1.762793e-02	2.845016e-02
217           	7.266528e-02	1.751108e-02	2.843188e-02
218           	7.011526e-02	1.737114e-02	2.847616e-02
219           	6.854501e-02	1.730364e-02	2.857372e-02
220           	6.672125e-02	1.717735e-02	2.878447e-02
221           	6.625122e-02	1.710287e-02	2.892586e-02
222           	6.675532e-02	1.698547e-02	2.916646e-02
223           	6.766348e-02	1.689744e-02	2.924948e-02
224           	7.003464e-02	1.681246e-02	2.940085e-02
225           	7.178610e-02	1.667914e-02	2.946997e-02
226           	7.400815e-02	1.655123e-02	2.953334e-02
227           	7.661627e-02	1.640314e-02	2.947208e-02
228           	7.968222e-02	1.625098e-02	2.941564e-02
229           	8.247616e-02	1.608338e-02	2.923304e-02
230           	8.488125e-02	1.589128e-02	2.905633e-02
231           	8.712930e-02	1.572365e-02	2.872703e-02
232           	8.952517e-02	1.551998e-02	2.842881e-02
233           	9.101981e-02	1.533848e-02	2.803346e-02
234           	9.198200e-02	1.515448e-02	2.762498e-02
235           	9.310822e-02	1.496891e-02	2.724890e-02
236           	9.522148e-02	1.478671e-02	2.683975e-02
237           	9.750809e-02	1.462317e-02	2.663518e-02
238           	9.843096e-02	1.447635e-02	2.643238e-02
239           	9.849488e-02	1.432368e-02	2.636487e-02
240           	9.885068e-02	1.418674e-02	2.642836e-02
241           	9.956084e-02	1.411896e-02	2.662786e-02
242           	9.897531e-02	1.403375e-02	2.695117e-02
243           	9.797518e-02	1.397883e-02	2.737598e-02
244           	9.704994e-02	1.396565e-02	2.787421e-02
245           	9.712457e-02	1.397776e-02	2.841528e-02
246           	9.820162e-02	1.405612e-02	2.896295e-02
247           	1.017689e-01	1.418226e-02	2.942694e-02
248           	1.055326e-01	1.433199e-02	2.980400e-02
249           	1.096706e-01	1.452904e-02	3.008866e-02
250           	1.123959e-01	1.478158e-02	3.032668e-02
251           	1.141178e-01	1.509538e-02	3.055190e-02
252           	1.140163e-01	1.545268e-02	3.073610e-02
253           	1.137805e-01	1.583419e-02	3.091157e-02
254           	1.127808e-01	1.621342e-02	3.106227e-02
255           	1.121280e-01	1.661671e-02	3.122998e-02
256           	1.109710e-01	1.698141e-02	3.138042e-02
257           	1.100263e-01	1.735090e-02	3.153310e-02
258           	1.097872e-01	1.770016e-02	3.167401e-02
259           	1.098983e-01	1.804364e-02	3.181468e-02
260           	1.100569e-01	1.838660e-02	3.194302e-02
261           	1.105880e-01	1.871870e-02	3.207569e-02
262           	1.110836e-01	1.908052e-02	3.220386e-02
263           	1.118575e-01	1.944218e-02	3.235129e-02
264           	1.126072e-01	1.978078e-02	3.248666e-02
265           	1.127361e-01	2.014452e-02	3.261324e-02
266           	1.130125e-01	2.051124e-02	3.273124e-02
267           	1.127146e-01	2.087403e-02	3.285773e-02
268           	1.127199e-01	2.124913e-02	3.298771e-02
269           	1.124284e-01	2.165442e-02	3.309513e-02
270           	1.126836e-01	2.207948e-02	3.320250e-02
271           	1.126884e-01	2.250981e-02	3.332663e-02
272           	1.129924e-01	2.294917e-02	3.346686e-02
273           	1.145401e-01	2.340637e-02	3.366046e-02
274           	1.177948e-01	2.387053e-02	3.390331e-02
275           	1.219704e-01	2.434450e-02	3.419918e-02
276           	1.272866e-01	2.482228e-02	3.452149e-02
277           	1.306454e-01	2.527294e-02	3.477802e-02
278           	1.338295e-01	2.575646e-02	3.503361e-02
279           	1.366267e-01	2.618539e-02	3.520125e-02
280           	1.446792e-01	2.661491e-02	3.533109e-02
281           	1.598440e-01	2.707589e-02	3.544075e-02
282           	1.729160e-01	2.766120e-02	3.549007e-02
283           	1.816013e-01	2.818491e-02	3.542803e-02
284           	1.910041e-01	2.856556e-02	3.525424e-02
285           	2.056442e-01	2.903898e-02	3.509600e-02
286           	2.220871e-01	2.964391e-02	3.507531e-02
287           	2.194529e-01	3.013069e-02	3.468332e-02
288           	2.260409e-01	3.048126e-02	3.397941e-02
289           	2.302955e-01	3.100652e-02	3.349050e-02
290           	2.080822e-01	3.138820e-02	3.280526e-02
291           	2.266627e-01	3.160160e-02	3.221385e-02
292           	2.127656e-01	3.210976e-02	3.191904e-02
293           	2.049759e-01	3.219800e-02	3.132940e-02
294           	1.992647e-01	3.223316e-02	3.086540e-02
295           	1.938212e-01	3.229515e-02	3.038490e-02
296           	1.918675e-01	3.225995e-02	3.004405e-02
297           	1.840343e-01	3.221972e-02	2.983399e-02
298           	1.805507e-01	3.208596e-02	2.959649e-02
299           	1.759637e-01	3.189099e-02	2.941602e-02
300           	1.729784e-01	3.166793e-02	2.925062e-02
301           	1.673998e-01	3.134861e-02	2.915454e-02
302           	1.640233e-01	3.097373e-02	2.920929e-02
303           	1.596904e-01	3.055064e-02	2.933422e-02
304           	1.555266e-01	3.013805e-02	2.950841e-02
305           	1.510880e-01	2.970314e-02	2.976532e-02
306           	1.481227e-01	2.926005e-02	3.001937e-02
307           	1.472240e-01	2.875551e-02	3.033137e-02
308           	1.465393e-01	2.830539e-02	3.065491e-02
309           	1.482682e-01	2.798838e-02	3.105799e-02
310           	1.478922e-01	2.755926e-02	3.134704e-02
311           	1.466459e-01	2.713054e-02	3.162588e-02
312           	1.477042e-01	2.671358e-02	3.193571e-02
313           	1.483232e-01	2.630658e-02	3.225884e-02
314           	1.483812e-01	2.586082e-02	3.260451e-02
315           	1.477591e-01	2.539430e-02	3.287997e-02
316           	1.469655e-01	2.491339e-02	3.315505e-02
317           	1.469058e-01	2.444506e-02	3.340900e-02
318           	1.464442e-01	2.399546e-02	3.370078e-02
319           	1.451603e-01	2.353723e-02	3.395817e-02
320           	1.443286e-01	2.305528e-02	3.416165e-02
321           	1.428825e-01	2.252631e-02	3.428632e-02
322           	1.415621e-01	2.200547e-02	3.427185e-02
323           	1.391404e-01	2.145433e-02	3.420108e-02
324           	1.351833e-01	2.090749e-02	3.415639e-02
325           	1.317959e-01	2.034119e-02	3.398517e-02
326           	1.270939e-01	1.980651e-02	3.351586e-02
327           	1.227889e-01	1.930189e-02	3.301042e-02
328           	1.169097e-01	1.883003e-02	3.241725e-02
329           	1.121823e-01	1.838111e-02	3.167760e-02
330           	1.074522e-01	1.794032e-02	3.096764e-02
331           	1.032771e-01	1.755283e-02	3.013759e-02
332           	9.930975e-02	1.720044e-02	2.938632e-02
333           	9.515956e-02	1.687882e-02	2.858951e-02
334           	9.074633e-02	1.657355e-02	2.785419e-02
335           	8.796350e-02	1.629799e-02	2.716875e-02
336           	8.548575e-02	1.599727e-02	2.653772e-02
337           	8.268809e-02	1.570110e-02	2.595436e-02
338           	8.078874e-02	1.543565e-02	2.542641e-02
339           	7.869813e-02	1.521221e-02	2.500281e-02
340           	7.627297e-02	1.495237e-02	2.462122e-02
341           	7.374399e-02	1.472320e-02	2.436221e-02
342           	7.142977e-02	1.453056e-02	2.421269e-02
343           	6.850649e-02	1.433586e-02	2.417739e-02
344           	6.618904e-02	1.417575e-02	2.419451e-02
345           	6.539628e-02	1.402140e-02	2.435197e-02
346           	6.350102e-02	1.388732e-02	2.456123e-02
347           	6.261190e-02	1.376576e-02	2.475438e-02
348           	6.326291e-02	1.364438e-02	2.496484e-02
349           	6.386955e-02	1.354826e-02	2.513207e-02
350           	6.593671e-02	1.343719e-02	2.531536e-02
351           	6.815844e-02	1.333609e-02	2.548970e-02
352           	7.030219e-02	1.325042e-02	2.564137e-02
353           	7.303603e-02	1.317158e-02	2.574180e-02
354           	7.497450e-02	1.311061e-02	2.583383e-02
355           	7.797956e-02	1.304340e-02	2.593977e-02
356           	8.129225e-02	1.300461e-02	2.599541e-02
357           	8.501717e-02	1.296301e-02	2.604587e-02
358           	8.872483e-02	1.293913e-02	2.611528e-02
359           	9.204381e-02	1.293903e-02	2.616730e-02
360           	9.522749e-02	1.295306e-02	2.626237e-02
361           	9.608849e-02	1.298939e-02	2.637811e-02
362           	9.889881e-02	1.302903e-02	2.651964e-02
363           	1.028727e-01	1.310538e-02	2.677807e-02
364           	1.032769e-01	1.322667e-02	2.719968e-02
365           	1.023149e-01	1.335344e-02	2.769743e-02
366           	1.015615e-01	1.348669e-02	2.823900e-02
367           	1.010569e-01	1.361884e-02	2.882389e-02
368           	1.020611e-01	1.379321e-02	2.945842e-02
369           	1.035789e-01	1.399681e-02	3.016618e-02
370           	1.053271e-01	1.422919e-02	3.089795e-02
371           	1.076942e-01	1.449236e-02	3.154026e-02
372           	1.095783e-01	1.477702e-02	3.209262e-02
373           	1.119688e-01	1.507607e-02	3.254189e-02
374           	1.134821e-01	1.541135e-02	3.290620e-02
375           	1.148927e-01	1.577429e-02	3.319096e-02
376           	1.150250e-01	1.617268e-02	3.341862e-02
377           	1.144766e-01	1.658242e-02	3.356393e-02
378           	1.137055e-01	1.703370e-02	3.365572e-02
379           	1.126956e-01	1.748096e-02	3.370658e-02
380           	1.120677e-01	1.793674e-02	3.373704e-02
381           	1.111298e-01	1.838673e-02	3.372752e-02
382           	1.105076e-01	1.883488e-02	3.371781e-02
383           	1.094996e-01	1.929560e-02	3.371858e-02
384           	1.095574e-01	1.972746e-02	3.371068e-02
385           	1.101085e-01	2.014349e-02	3.372833e-02
386           	1.110443e-01	2.058560e-02	3.366777e-02
387           	1.123394e-01	2.101115e-02	3.362429e-02
388           	1.128904e-01	2.140928e-02	3.354790e-02
389           	1.133418e-01	2.180606e-02	3.349178e-02
390           	1.138336e-01	2.222243e-02	3.344341e-02
391           	1.148662e-01	2.262608e-02	3.347214e-02
392           	1.155577e-01	2.303514e-02	3.355409e-02
393           	1.166612e-01	2.344776e-02	3.367763e-02
394           	1.180489e-01	2.387718e-02	3.386550e-02
395           	1.205387e-01	2.432385e-02	3.409794e-02
396           	1.219005e-01	2.476377e-02	3.437920e-02
397           	1.228787e-01	2.520450e-02	3.464975e-02
398           	1.244562e-01	2.560817e-02	3.490440e-02
399           	1.313599e-01	2.607080e-02	3.522661e-02
400           	1.417040e-01	2.649965e-02	3.545765e-02
401           	1.519566e-01	2.705762e-02	3.567548e-02
402           	1.596385e-01	2.761933e-02	3.583298e-02
403           	1.672988e-01	2.805720e-02	3.582261e-02
404           	1.737688e-01	2.848168e-02	3.572785e-02
405           	1.935172e-01	2.901208e-02	3.577041e-02
406           	2.052512e-01	2.961049e-02	3.581716e-02
407           	2.004467e-01	2.997978e-02	3.533925e-02
408           	2.271216e-01	3.031341e-02	3.477501e-02
409           	2.183857e-01	3.097505e-02	3.436926e-02
410           	1.995366e-01	3.118855e-02	3.352687e-02
411           	2.020576e-01	3.131448e-02	3.280766e-02
412           	1.946471e-01	3.158595e-02	3.216187e-02
413           	1.980049e-01	3.173070e-02	3.163079e-02
414           	1.908219e-01	3.180644e-02	3.132545e-02
415           	1.883234e-01	3.182509e-02	3.088362e-02
416           	1.855363e-01	3.170097e-02	3.042335e-02
417           	1.832492e-01	3.151993e-02	2.998034e-02
418           	1.811925e-01	3.125924e-02	2.958947e-02
419           	1.743350e-01	3.093929e-02	2.938484e-02
420           	1.706303e-01	3.060421e-02	2.924371e-02
421           	1.660855e-01	3.022141e-02	2.913258e-02
422           	1.639531e-01	2.980522e-02	2.906535e-02
423           	1.606327e-01	2.929078e-02	2.910070e-02
424           	1.566535e-01	2.873461e-02	2.916668e-02
425           	1.524046e-01	2.814681e-02	2.934888e-02
426           	1.499616e-01	2.756798e-02	2.955197e-02
427           	1.477878e-01	2.703193e-02	2.976673e-02
428           	1.475417e-01	2.649128e-02	3.002919e-02
429           	1.474955e-01	2.605810e-02	3.033150e-02
430           	1.459992e-01	2.551969e-02	3.051980e-02
431           	1.455173e-01	2.501772e-02	3.071221e-02
432           	1.449250e-01	2.452999e-02	3.093601e-02
433           	1.453516e-01	2.405895e-02	3.118340e-02
434           	1.449292e-01	2.358673e-02	3.139247e-02
435           	1.433752e-01	2.310597e-02	3.160323e-02
436           	1.421619e-01	2.261425e-02	3.177188e-02
437           	1.405728e-01	2.213153e-02	3.194040e-02
438           	1.398577e-01	2.165933e-02	3.211466e-02
439           	1.390558e-01	2.120869e-02	3.229450e-02
440           	1.376691e-01	2.075541e-02	3.241832e-02
441           	1.361967e-01	2.028245e-02	3.247490e-02
442           	1.346686e-01	1.978692e-02	3.247752e-02
443           	1.321428e-01	1.929178e-02	3.237264e-02
444           	1.290076e-01	1.879959e-02	3.233012e-02
445           	1.257180e-01	1.827617e-02	3.210646e-02
446           	1.220472e-01	1.778405e-02	3.174766e-02
447           	1.178777e-01	1.732626e-02	3.119470e-02
448           	1.143122e-01	1.689851e-02	3.066491e-02
449           	1.100494e-01	1.650921e-02	2.999210e-02
450           	1.057539e-01	1.614163e-02	2.927312e-02
451           	1.006470e-01	1.580260e-02	2.850242e-02
452           	9.666614e-02	1.547365e-02	2.779424e-02
453           	9.308717e-02	1.519509e-02	2.711047e-02
454           	9.006973e-02	1.493124e-02	2.640046e-02
455           	8.749095e-02	1.467932e-02	2.574937e-02
456           	8.542328e-02	1.441965e-02	2.511708e-02
457           	8.229725e-02	1.417281e-02	2.453084e-02
458           	7.982683e-02	1.391754e-02	2.399831e-02
459           	7.765188e-02	1.368053e-02	2.353412e-02
460           	7.589870e-02	1.346810e-02	2.317758e-02
461           	7.347786e-02	1.328194e-02	2.291990e-02
462           	7.054767e-02	1.309454e-02	2.276247e-02
463           	6.851728e-02	1.292621e-02	2.272937e-02
464           	6.696350e-02	1.278398e-02	2.282700e-02
465           	6.522116e-02	1.266886e-02	2.302433e-02
466           	6.365764e-02	1.256697e-02	2.326367e-02
467           	6.411672e-02	1.248064e-02	2.349500e-02
468           	6.429162e-02	1.240430e-02	2.375417e-02
469           	6.505125e-02	1.235143e-02	2.402621e-02
470           	6.716311e-02	1.230759e-02	2.428533e-02
471           	6.935797e-02	1.226451e-02	2.453865e-02
472           	7.207983e-02	1.223832e-02	2.478652e-02
473           	7.501388e-02	1.221614e-02	2.503131e-02
474           	7.784115e-02	1.220722e-02	2.523527e-02
475           	8.111243e-02	1.221013e-02	2.546654e-02
476           	8.472675e-02	1.222694e-02	2.570549e-02
477           	8.897872e-02	1.226680e-02	2.597381e-02
478           	9.331279e-02	1.232590e-02	2.624061e-02
479           	9.711235e-02	1.242024e-02	2.655988e-02
480           	9.815757e-02	1.254924e-02	2.689563e-02
481           	9.960057e-02	1.271104e-02	2.726435e-02
482           	1.011765e-01	1.288395e-02	2.768460e-02
483           	1.038165e-01	1.308357e-02	2.816899e-02
484           	1.051144e-01	1.328855e-02	2.874639e-02
485           	1.072217e-01	1.351931e-02	2.941611e-02
486           	1.084305e-01	1.376909e-02	3.014474e-02
487           	1.089389e-01	1.402965e-02	3.090523e-02
488           	1.101340e-01	1.429936e-02	3.163334e-02
489           	1.109537e-01	1.460040e-02	3.236071e-02
490           	1.117985e-01	1.490737e-02	3.305560e-02
491           	1.125541e-01	1.524510e-02	3.369063e-02
492           	1.133679e-01	1.558793e-02	3.423703e-02
493           	1.142375e-01	1.595197e-02	3.467138e-02
494           	1.144543e-01	1.631491e-02	3.498676e-02
495           	1.138930e-01	1.671328e-02	3.517753e-02
496           	1.131459e-01	1.711225e-02	3.522713e-02
497           	1.118996e-01	1.754039e-02	3.523248e-02
498           	1.111416e-01	1.796849e-02	3.515723e-02
499           	1.103703e-01	1.839317e-02	3.502411e-02
500           	1.095573e-01	1.887584e-02	3.491127e-02
